ITEM: TIMESTEP
1000000
ITEM: NUMBER OF ATOMS
17167
ITEM: BOX BOUNDS ff ff ff
-25 25
-25 25
-25 25
ITEM: ATOMS id type x y z radius vx vy vz fx fy fz 
2 1 0.0152833 -0.244304 0.0550549 0.0551181 0 0 0 -147.865 -88.2137 -493.895 
1 1 -0.0935211 -0.226839 0.0540128 0.0551181 0 0 0 -4273.23 -8473.73 -10194.6 
3 1 0.12715 -0.209895 0.0540909 0.0551181 0 0 0 2908.2 492.872 -10504.6 
4 1 -0.221071 -0.105772 0.0538619 0.0551181 0 0 0 -4685 -1077.92 -13377.2 
5 1 -0.101949 -0.117131 0.0543449 0.0551181 0 0 0 -2520.84 -1379.89 -7795.69 
6 1 0.00770322 -0.121163 0.0544733 0.0551181 0 0 0 3149.37 1373.87 -5451.52 
8 1 0.206167 -0.13343 0.0536844 0.0551181 0 0 0 7951.15 -2483.66 -16096.4 
7 1 0.109856 -0.0817084 0.0548532 0.0551181 0 0 0 -395.588 810.832 -3989.77 
12 1 -0.245958 0.000897848 0.0544196 0.0551181 0 0 0 -8755.22 189.482 -7121.8 
9 1 -0.138241 -0.0147559 0.0545598 0.0551181 0 0 0 -295.627 -1700.57 -6157.88 
10 1 -0.0280675 -0.0169826 0.0550277 0.0551181 0 0 0 -89.6723 416.64 -753.716 
13 1 0.0904673 0.0264282 0.0542538 0.0551181 0 0 0 -2995.35 -595.993 -7534.78 
11 1 0.209786 -0.0239241 0.054967 0.0551181 0 0 0 648.021 -215.723 -1460.03 
15 1 -0.112145 0.0911004 0.0550232 0.0551181 0 0 0 -893.679 1642.87 -1591.67 
16 1 -0.00326253 0.0903445 0.0528653 0.0551181 0 0 0 -6074.15 -2886.36 -20178.3 
17 1 0.23118 0.0834961 0.0538991 0.0551181 0 0 0 3043.98 455.083 -13053.5 
14 1 -0.220197 0.108002 0.0547644 0.0551181 0 0 0 -4836.91 2054.43 -4405.59 
25 1 0.0857215 0.124524 0.101872 0.0551181 0 0 0 2224.64 2832.64 -6915.06 
18 1 -0.15118 0.193492 0.0542384 0.0551181 0 0 0 -2804.91 4940.06 -9264.71 
19 1 -0.0411082 0.199625 0.0551057 0.0551181 0 0 0 0 0 -0.270623 
21 1 0.0626435 0.236861 0.0535998 0.0551181 0 0 0 288.122 989.113 -17383.8 
20 1 0.162324 0.18464 0.0542283 0.0551181 0 0 0 4800.49 7800.24 -8806.94 
22 1 -0.169389 -0.177469 0.116447 0.0551181 0 0 0 -2599.19 -5009.37 -3110.49 
27 1 0.0756881 -0.233338 0.146479 0.0551181 0 0 0 -2703.64 -3432.09 467.388 
28 1 0.172569 -0.174375 0.147579 0.0551181 0 0 0 2377.28 -7098.29 -1471.49 
23 1 -0.0492766 -0.169246 0.133761 0.0551181 0 0 0 1001.63 2646.3 21.0805 
30 1 0.0707756 -0.123323 0.148706 0.0551181 0 0 0 76.1648 -167.017 127.062 
32 1 -0.213436 -0.0514028 0.147597 0.0551181 0 0 0 -930.136 75.3152 -52.3459 
33 1 -0.0171143 -0.0570979 0.156953 0.0551181 0 0 0 -156.176 -633.921 -844.933 
31 1 0.232042 -0.081856 0.146392 0.0551181 0 0 0 7836.68 360.838 -1756.01 
35 1 -0.0937053 0.0227702 0.146543 0.0551181 0 0 0 2095.87 939.188 -823.099 
24 1 0.14017 -0.019355 0.139835 0.0551181 0 0 0 3201.58 -1623.75 -764.169 
37 1 0.243375 0.0270635 0.146815 0.0551181 0 0 0 1578.72 -1428.35 -629.103 
34 1 -0.239485 0.0550847 0.148416 0.0551181 0 0 0 -4004.58 3011.32 -1365.81 
36 1 0.0276236 0.0426413 0.145349 0.0551181 0 0 0 2398.69 -3515.26 -833.522 
38 1 -0.164448 0.135123 0.145901 0.0551181 0 0 0 -1860.1 457.568 131.872 
39 1 -0.055006 0.125006 0.142456 0.0551181 0 0 0 -937.05 1311.41 1357.76 
41 1 0.203734 0.137407 0.143553 0.0551181 0 0 0 8999.99 9348.29 -1093.9 
43 1 -0.100132 0.224398 0.145365 0.0551181 0 0 0 -4988.14 7110.8 -2101.02 
45 1 0.113739 0.218321 0.147286 0.0551181 0 0 0 5988.11 11444.3 1355.62 
44 1 0.00691252 0.245192 0.146163 0.0551181 0 0 0 277.978 2555.04 1058.75 
26 1 -0.01733 -0.245623 0.202223 0.0551181 0 0 0 -1754.25 -17825 -6921.02 
47 1 -0.127399 -0.199537 0.213316 0.0551181 0 0 0 -1992.2 66.1389 1345.96 
46 1 0.127548 -0.209551 0.239324 0.0551181 0 0 0 4994.41 -1319.18 87.1217 
49 1 -0.209742 -0.127734 0.227926 0.0551181 0 0 0 -2231.71 -1883.66 -644.596 
48 1 -0.00374594 -0.140292 0.227676 0.0551181 0 0 0 354.809 2642.23 1586.87 
29 1 -0.118001 -0.0962087 0.176361 0.0551181 0 0 0 -699.276 848.477 -2078.1 
50 1 0.151267 -0.0941679 0.217994 0.0551181 0 0 0 -101.723 -96.8983 1296.59 
51 1 -0.245895 -0.00350828 0.239845 0.0551181 0 0 0 -10364.9 736.983 1825.56 
53 1 0.0664974 -0.0259663 0.22131 0.0551181 0 0 0 563.712 2350.99 904.181 
58 1 -0.110624 0.0931442 0.231693 0.0551181 0 0 0 1150.52 20.2189 -154.346 
40 1 0.126934 0.0767954 0.18926 0.0551181 0 0 0 -3791.96 -2529.97 -2177.14 
59 1 0.229713 0.0870549 0.237059 0.0551181 0 0 0 1520.51 -99.3176 -1481.55 
57 1 -0.218592 0.111832 0.238849 0.0551181 0 0 0 -6077.52 3194.77 -792.585 
42 1 0.0371418 0.139451 0.19885 0.0551181 0 0 0 1517.48 -1084.06 -1691.47 
60 1 -0.148303 0.195631 0.2393 0.0551181 0 0 0 -4332.43 4640.72 1436.96 
62 1 -0.0487343 0.241049 0.240393 0.0551181 0 0 0 -884.663 11065 -1176.84 
63 1 0.060848 0.237561 0.240959 0.0551181 0 0 0 814.432 6293.75 818.009 
61 1 0.165544 0.182203 0.235273 0.0551181 0 0 0 10121 6316.08 -4653.3 
65 1 0.0395622 -0.2426 0.294268 0.0551181 0 0 0 -1150.38 -5318.15 -3567.76 
64 1 -0.0692179 -0.235735 0.296727 0.0551181 0 0 0 -312.361 -8806.43 383.069 
69 1 -0.0963384 -0.11895 0.281446 0.0551181 0 0 0 -1101.22 746.171 -1825.1 
70 1 0.0808078 -0.126271 0.293718 0.0551181 0 0 0 151.722 -3867.51 -732.492 
71 1 0.21616 -0.118079 0.301418 0.0551181 0 0 0 9887.18 -1975.64 -1825.61 
72 1 -0.183629 -0.0588451 0.309386 0.0551181 0 0 0 1944.01 -2185.18 -2060.27 
73 1 -0.0107463 -0.0529163 0.293873 0.0551181 0 0 0 36.4163 -2992.24 2500.25 
52 1 -0.103779 -0.0147197 0.248183 0.0551181 0 0 0 -2586.12 -2811.24 -252.71 
56 1 0.151049 0.0191887 0.276606 0.0551181 0 0 0 327.731 1746.93 1330.87 
54 1 0.243363 -0.02913 0.242333 0.0551181 0 0 0 2616.09 -659.275 -206.862 
55 1 -0.012659 0.0460309 0.246314 0.0551181 0 0 0 -1701.96 2946.42 1628.24 
80 1 -0.0254116 0.146595 0.288336 0.0551181 0 0 0 -3005.59 -2220.05 -1714.42 
78 1 0.0978964 0.114978 0.286517 0.0551181 0 0 0 2007.56 2421.56 4414.06 
67 1 -0.159523 -0.187939 0.335164 0.0551181 0 0 0 -10523.6 -13884.4 1068.81 
66 1 0.128145 -0.210378 0.347521 0.0551181 0 0 0 3382.35 -5641.21 -1613.94 
68 1 -0.0127883 -0.154312 0.343381 0.0551181 0 0 0 -234.738 -632.785 348.113 
94 1 0.140805 -0.0566978 0.352057 0.0551181 0 0 0 797.86 -430.619 -1499.91 
92 1 -0.093874 -0.0175998 0.356319 0.0551181 0 0 0 440.337 3869.93 959.013 
75 1 0.0535963 0.0267406 0.330905 0.0551181 0 0 0 4272.38 -2864.72 -5413.03 
74 1 -0.202022 0.0478191 0.325501 0.0551181 0 0 0 558.732 -343.439 -122.957 
77 1 -0.102888 0.0905289 0.341119 0.0551181 0 0 0 532.625 727.863 -1247.96 
76 1 0.242812 0.0377303 0.333681 0.0551181 0 0 0 4258.59 1547.45 1998.34 
79 1 -0.188963 0.157397 0.334038 0.0551181 0 0 0 -5238.24 5024.09 -1542.43 
98 1 0.040064 0.140768 0.374491 0.0551181 0 0 0 -469.119 4231.19 251.895 
81 1 0.202076 0.139563 0.328495 0.0551181 0 0 0 7915.51 6736.51 -192.313 
82 1 -0.101449 0.223094 0.334908 0.0551181 0 0 0 -866.918 1741.45 3768.03 
84 1 0.120294 0.2141 0.328775 0.0551181 0 0 0 939.726 2865.94 -331.68 
83 1 0.00583642 0.245269 0.335542 0.0551181 0 0 0 -902.399 1712.42 -1072.78 
86 1 0.0264892 -0.243915 0.401638 0.0551181 0 0 0 2140.46 -7305.01 -486.966 
85 1 -0.0829139 -0.230881 0.403196 0.0551181 0 0 0 -3435.3 57.6592 48.5942 
88 1 -0.216421 -0.116819 0.394554 0.0551181 0 0 0 -9605.83 329.115 -1465.68 
89 1 -0.101479 -0.11951 0.397587 0.0551181 0 0 0 174.41 -939.481 -800.917 
90 1 0.0764868 -0.130411 0.401931 0.0551181 0 0 0 800.761 3831.69 -804.439 
87 1 0.195812 -0.147761 0.403921 0.0551181 0 0 0 6874.38 -4575.43 -994.597 
102 1 -0.148996 -0.0357093 0.448175 0.0551181 0 0 0 -667.022 -3930.99 1430.53 
93 1 -0.00843523 -0.0613659 0.407014 0.0551181 0 0 0 -118.088 -1464.29 216.098 
95 1 0.240643 -0.0479848 0.400864 0.0551181 0 0 0 1614.01 -2238.6 -900.804 
91 1 -0.245745 -0.0113479 0.406438 0.0551181 0 0 0 -11966.1 649.239 -836.993 
104 1 0.0714391 0.00702793 0.435187 0.0551181 0 0 0 -1126.24 5466.24 1958.51 
106 1 -0.224798 0.0989503 0.41879 0.0551181 0 0 0 -8427.44 3413.28 2116.7 
107 1 -0.122922 0.0704469 0.44733 0.0551181 0 0 0 690.226 -189.379 -825.711 
96 1 -0.023121 0.0519369 0.404683 0.0551181 0 0 0 -1009.11 -377.721 761.222 
97 1 0.147675 0.0637011 0.383315 0.0551181 0 0 0 1026.67 -2478.75 -2717.24 
105 1 0.239257 0.0537429 0.442947 0.0551181 0 0 0 2265.93 306.262 1612.45 
110 1 -0.0586564 0.154527 0.418457 0.0551181 0 0 0 969.631 300.963 -412.483 
109 1 -0.161028 0.186115 0.436683 0.0551181 0 0 0 -6010.08 5343.72 513.649 
113 1 0.0699672 0.235025 0.422942 0.0551181 0 0 0 2.49659 3214.36 -683.169 
111 1 0.165553 0.181788 0.421846 0.0551181 0 0 0 5318.61 9287.24 213.042 
115 1 0.0323812 -0.241998 0.510379 0.0551181 0 0 0 -1493.33 -321.804 200.74 
100 1 -0.164055 -0.182287 0.464302 0.0551181 0 0 0 -1825.45 -916.357 1378.17 
114 1 -0.0790664 -0.232472 0.510718 0.0551181 0 0 0 3919.74 -2523.44 -1542.26 
99 1 0.123203 -0.213045 0.455718 0.0551181 0 0 0 7034.42 -10307 -594.901 
101 1 -0.0167479 -0.159523 0.45446 0.0551181 0 0 0 -495.858 2074.26 273.801 
119 1 0.0746661 -0.132135 0.509794 0.0551181 0 0 0 -2083.18 -2620.39 2581.56 
116 1 0.196011 -0.148112 0.51195 0.0551181 0 0 0 8018.8 -3534.92 -412.988 
117 1 -0.225018 -0.096635 0.500505 0.0551181 0 0 0 990.742 -4063.61 1988.45 
103 1 0.146843 -0.0671836 0.458529 0.0551181 0 0 0 -2198.47 -1110.84 -2025.69 
123 1 0.241141 -0.0480606 0.510199 0.0551181 0 0 0 7104.96 -440.594 -1947.63 
121 1 -0.0513032 -0.00681453 0.492615 0.0551181 0 0 0 -608.727 -641.055 -329.724 
125 1 0.15093 0.0312342 0.506299 0.0551181 0 0 0 277.186 -124.215 2943.61 
124 1 -0.235855 0.0368413 0.506938 0.0551181 0 0 0 -399.789 -53.0493 20.7889 
129 1 0.000710446 0.146685 0.514627 0.0551181 0 0 0 380.464 1091.87 -408.936 
108 1 0.0923873 0.113375 0.464209 0.0551181 0 0 0 895.359 -4598.94 -1501.23 
127 1 0.204914 0.134233 0.509926 0.0551181 0 0 0 2971.49 -991.193 91.8039 
112 1 -0.0275758 0.244 0.472122 0.0551181 0 0 0 -1442.39 7877.14 272.168 
134 1 0.125337 -0.211964 0.564281 0.0551181 0 0 0 6168.31 -7904.47 3797.01 
135 1 -0.180151 -0.166335 0.573739 0.0551181 0 0 0 -1556.13 -1627.23 871.763 
118 1 -0.105666 -0.10574 0.520563 0.0551181 0 0 0 316.763 -204.066 -1153.76 
136 1 -0.0180879 -0.155881 0.563026 0.0551181 0 0 0 1086.65 -2874.8 1461.62 
141 1 0.147822 -0.0642458 0.565994 0.0551181 0 0 0 -2320.38 40.7001 -2565.72 
120 1 -0.143683 -0.00759062 0.552309 0.0551181 0 0 0 207.648 3836.35 348.573 
122 1 0.0485462 -0.0300712 0.533033 0.0551181 0 0 0 1382.32 2412.61 -1704.82 
143 1 -0.0082287 0.0518087 0.577491 0.0551181 0 0 0 -258.217 -47.7243 13.0521 
145 1 0.241855 0.0471439 0.564095 0.0551181 0 0 0 12936.2 289.349 -2860.69 
128 1 -0.201233 0.139326 0.527995 0.0551181 0 0 0 -50.614 46.6165 96.6831 
126 1 -0.0968825 0.10855 0.546457 0.0551181 0 0 0 -1240.05 -560.296 -466.486 
147 1 0.0880644 0.111851 0.571409 0.0551181 0 0 0 -1338.53 1296.94 -224.71 
130 1 -0.120378 0.214542 0.534746 0.0551181 0 0 0 -1456.44 5564.9 567.383 
131 1 0.0702745 0.234724 0.530948 0.0551181 0 0 0 1996.6 1497.93 -476.74 
149 1 -0.0254083 0.244483 0.58156 0.0551181 0 0 0 -3148.13 12388.1 -2248.62 
133 1 0.0369527 -0.242669 0.619062 0.0551181 0 0 0 1565.27 -5903.51 -5548.65 
132 1 -0.0707086 -0.235668 0.617149 0.0551181 0 0 0 -7618.48 -10014.5 601.693 
138 1 0.0776775 -0.129161 0.618539 0.0551181 0 0 0 -714.109 789.145 1710.75 
137 1 0.196405 -0.146974 0.619896 0.0551181 0 0 0 4185.12 -4168.98 270.102 
139 1 -0.243701 -0.0352599 0.58766 0.0551181 0 0 0 -8925.51 3878.63 -3178.27 
156 1 -0.130546 -0.0494651 0.652073 0.0551181 0 0 0 1172.37 193.347 3423.19 
140 1 -0.0403267 -0.0522923 0.591709 0.0551181 0 0 0 -198.77 -2658.77 -1317.5 
142 1 0.241483 -0.0476027 0.61926 0.0551181 0 0 0 8477.46 -1718.78 -547.255 
157 1 0.0545973 -0.0214979 0.640357 0.0551181 0 0 0 1168.28 -1271.71 1875.67 
144 1 0.147383 0.0324612 0.61739 0.0551181 0 0 0 824.506 197.834 1740.43 
146 1 -0.234926 0.0713435 0.611401 0.0551181 0 0 0 -6297.66 -83.9509 -65.6352 
159 1 -0.129346 0.0586164 0.637684 0.0551181 0 0 0 -455.677 86.5269 69.5184 
163 1 -0.173611 0.159152 0.632835 0.0551181 0 0 0 -1971.07 1961.87 -646.62 
164 1 -0.0111108 0.148213 0.628613 0.0551181 0 0 0 278.488 1675.05 3116.8 
148 1 0.204664 0.134674 0.618573 0.0551181 0 0 0 1060.18 2882.57 -1714.23 
150 1 0.126337 0.210783 0.620469 0.0551181 0 0 0 1625.96 1388.14 1440.21 
151 1 0.126405 -0.210951 0.673365 0.0551181 0 0 0 3731.82 -5682.41 2373.23 
154 1 -0.219853 -0.110786 0.660176 0.0551181 0 0 0 -13551.4 -12106.3 -2696.1 
152 1 -0.122265 -0.156254 0.669679 0.0551181 0 0 0 864.528 1207.16 -3150.94 
153 1 -0.0126884 -0.159644 0.671429 0.0551181 0 0 0 -2258.76 80.3448 195.607 
172 1 -0.0298171 -0.0547622 0.700532 0.0551181 0 0 0 145.844 -846.462 -128.374 
158 1 0.147779 -0.0652213 0.674391 0.0551181 0 0 0 3525.74 -746.915 -1316.87 
155 1 -0.246072 -0.00475849 0.691806 0.0551181 0 0 0 -9364.74 -2194.88 3015.17 
160 1 -0.00331815 0.0570724 0.687446 0.0551181 0 0 0 -957.144 -148.192 -1844.53 
161 1 0.241228 0.0472539 0.673065 0.0551181 0 0 0 7413.06 3212.65 646.499 
178 1 -0.0927526 0.116433 0.72132 0.0551181 0 0 0 399.89 -843.059 1648.61 
162 1 0.0841967 0.123863 0.678123 0.0551181 0 0 0 1537.88 -2451.73 -991.567 
165 1 -0.0940313 0.226873 0.664185 0.0551181 0 0 0 -1511.18 2147.56 1387.89 
166 1 0.0351831 0.242661 0.673606 0.0551181 0 0 0 0.561336 20.7131 136.907 
168 1 0.0367193 -0.242809 0.726401 0.0551181 0 0 0 -695.808 -3111.19 -1389.44 
183 1 -0.160679 -0.186536 0.767256 0.0551181 0 0 0 -7957.21 -6763.16 257.116 
167 1 -0.072043 -0.235059 0.724999 0.0551181 0 0 0 -3774.67 -13725.4 1461.11 
182 1 0.125522 -0.211244 0.782735 0.0551181 0 0 0 2470.46 -1931.62 -337.228 
184 1 -0.0150153 -0.1601 0.779628 0.0551181 0 0 0 3780.87 -2212.68 2358.24 
171 1 0.0765295 -0.129393 0.727767 0.0551181 0 0 0 1729.15 634.717 376.307 
169 1 0.196267 -0.147463 0.728774 0.0551181 0 0 0 6319.06 -3276.53 -1452.01 
185 1 -0.225089 -0.0970462 0.766954 0.0551181 0 0 0 -5817.11 998.17 500.788 
170 1 -0.116877 -0.0875879 0.755438 0.0551181 0 0 0 36.0237 91.7609 177.575 
186 1 0.147442 -0.0655872 0.782605 0.0551181 0 0 0 -2618.87 831.829 63.7239 
174 1 0.241417 -0.0476984 0.727966 0.0551181 0 0 0 6246.99 -1134.78 1084.63 
175 1 -0.14962 0.0159315 0.73681 0.0551181 0 0 0 534.438 4075.81 -3121.26 
188 1 -0.0507555 0.0281755 0.780585 0.0551181 0 0 0 590.894 -2480.98 111.661 
173 1 0.0506363 -0.00846324 0.758044 0.0551181 0 0 0 -65.5695 700.577 72.0329 
176 1 0.147572 0.0312478 0.726974 0.0551181 0 0 0 -525.939 -884.749 703.59 
177 1 -0.224939 0.0970901 0.726555 0.0551181 0 0 0 -849.565 750.093 -85.7687 
189 1 0.241135 0.0476491 0.782017 0.0551181 0 0 0 5203.32 1774.88 -2065.99 
180 1 0.00737243 0.144517 0.752412 0.0551181 0 0 0 2754.53 1474.77 -103.381 
191 1 0.109703 0.117066 0.783346 0.0551181 0 0 0 -2157.92 2687.89 778.194 
179 1 0.204254 0.135464 0.72706 0.0551181 0 0 0 390.471 1335.81 432.197 
192 1 -0.167089 0.180251 0.768716 0.0551181 0 0 0 -6492.31 6401.64 -2734.08 
194 1 -0.0718226 0.234352 0.77072 0.0551181 0 0 0 -206.546 2842.9 -295.147 
181 1 0.125121 0.211553 0.72936 0.0551181 0 0 0 1500.77 5757.6 64.8888 
195 1 0.0361999 0.243679 0.785337 0.0551181 0 0 0 -538.537 12111.7 1031.42 
197 1 0.0338004 -0.242955 0.833024 0.0551181 0 0 0 1516.84 -2750.36 576.515 
196 1 -0.0751295 -0.234467 0.833059 0.0551181 0 0 0 -4247.33 -6725.68 -775.224 
203 1 0.0714793 -0.123161 0.836645 0.0551181 0 0 0 -703.369 -1463.75 1959.82 
201 1 0.19616 -0.147395 0.837552 0.0551181 0 0 0 3394.04 -5042.84 336.368 
205 1 -0.0400159 -0.0687502 0.831928 0.0551181 0 0 0 -2649.29 1275.82 -2156.76 
208 1 0.241116 -0.0473603 0.836488 0.0551181 0 0 0 4111.99 -1877.57 -531.715 
187 1 -0.245057 0.00778597 0.801195 0.0551181 0 0 0 -306.686 -105.54 144.538 
204 1 -0.14598 -0.0229826 0.838318 0.0551181 0 0 0 -1275.85 -1633 350.483 
211 1 0.147654 0.0290298 0.836922 0.0551181 0 0 0 -360.709 -375.693 -411.137 
190 1 -0.167213 0.0833617 0.820632 0.0551181 0 0 0 -701.569 -740.551 1225.97 
213 1 0.0212426 0.0836187 0.841908 0.0551181 0 0 0 -2211.71 -110.918 1742.89 
193 1 -0.0728507 0.139794 0.826896 0.0551181 0 0 0 -770.321 -1770.28 -1038.76 
215 1 0.20457 0.135665 0.835579 0.0551181 0 0 0 5119.88 2890.47 582.44 
219 1 0.12566 0.211287 0.838261 0.0551181 0 0 0 2929.5 2668.19 -2020.22 
199 1 -0.162182 -0.184597 0.876119 0.0551181 0 0 0 -2179.02 -3838.72 1788.9 
198 1 0.125452 -0.211718 0.891987 0.0551181 0 0 0 3226.59 -7245.1 -450.403 
200 1 -0.0173911 -0.159724 0.888866 0.0551181 0 0 0 -1715.19 953.077 -1233.05 
202 1 -0.226031 -0.0953543 0.874733 0.0551181 0 0 0 -0.979436 -2903.16 651.419 
223 1 -0.116031 -0.0936349 0.916559 0.0551181 0 0 0 293.211 -124.415 -127.807 
207 1 0.146897 -0.0659796 0.891684 0.0551181 0 0 0 2832.79 1194.23 1131.72 
210 1 -0.0564809 0.0217845 0.888719 0.0551181 0 0 0 2886.04 512.339 2993.88 
206 1 0.0513369 -0.0189135 0.866984 0.0551181 0 0 0 702.141 -157.906 -2409.54 
209 1 -0.238923 0.0567904 0.899651 0.0551181 0 0 0 -6482.55 2960.7 -1232.56 
212 1 0.24128 0.0480941 0.890827 0.0551181 0 0 0 10268.1 2856.29 2271.45 
230 1 -0.100185 0.112464 0.929197 0.0551181 0 0 0 638.871 733.909 -1316.16 
214 1 0.11237 0.116204 0.891799 0.0551181 0 0 0 2545 -1776.27 -1727.05 
216 1 -0.171347 0.176263 0.877636 0.0551181 0 0 0 -7082.07 9817.42 578.336 
218 1 -0.0683245 0.235767 0.879932 0.0551181 0 0 0 -965.205 6091.46 723.514 
217 1 0.029195 0.186796 0.885582 0.0551181 0 0 0 531.413 617.526 -543.224 
221 1 0.0315626 -0.243387 0.939226 0.0551181 0 0 0 -360.087 -4672.95 -181.367 
220 1 -0.0781886 -0.232859 0.941314 0.0551181 0 0 0 816.592 -8343.01 2002.44 
235 1 -0.192705 -0.152596 0.975606 0.0551181 0 0 0 -6726.49 -2794.61 -1021.75 
224 1 0.0725525 -0.133506 0.946026 0.0551181 0 0 0 24.1924 153.02 2020.61 
222 1 0.195735 -0.147545 0.946543 0.0551181 0 0 0 3623.25 -1197.95 354.662 
238 1 -0.239212 -0.053389 0.973046 0.0551181 0 0 0 -2698.18 1447.05 1238.3 
225 1 -0.0131183 -0.0651286 0.942593 0.0551181 0 0 0 1319.21 541.727 1151.91 
239 1 0.131604 -0.0587352 0.998875 0.0551181 0 0 0 -1496.73 -805.547 437.233 
226 1 0.24125 -0.0471857 0.944439 0.0551181 0 0 0 3849.94 -1653.66 374.747 
227 1 -0.151243 0.00794543 0.942007 0.0551181 0 0 0 -950.303 425.321 722.583 
241 1 -0.0570965 0.0175244 0.997344 0.0551181 0 0 0 -210.79 508.015 -192.764 
228 1 0.0479075 0.024866 0.967105 0.0551181 0 0 0 -172.013 -330.262 -65.0235 
229 1 0.156205 0.0395892 0.958095 0.0551181 0 0 0 -2423.13 -261.246 -509.871 
243 1 -0.20399 0.135614 0.974337 0.0551181 0 0 0 -1389.45 700.916 249.027 
245 1 0.06747 0.130553 0.98799 0.0551181 0 0 0 -441.817 1851.18 4484.3 
231 1 0.204741 0.136658 0.944063 0.0551181 0 0 0 12404.5 8222.78 4455.27 
247 1 -0.124577 0.211751 0.970173 0.0551181 0 0 0 -2430.59 2160.06 662.09 
232 1 0.125262 0.211795 0.946254 0.0551181 0 0 0 6612.26 11178.9 -2630.97 
248 1 0.0265574 0.244286 0.97945 0.0551181 0 0 0 -862.931 7950.48 -94.1214 
249 1 0.0323307 -0.244316 1.04475 0.0551181 0 0 0 1772.88 -10351.7 524.315 
233 1 -0.123836 -0.212546 1.03661 0.0551181 0 0 0 -4331.17 -3390.39 851.106 
234 1 0.129422 -0.208708 1.00839 0.0551181 0 0 0 1745.31 -3411.29 -78.7459 
236 1 -0.0179891 -0.157 1.00308 0.0551181 0 0 0 759.939 -843.324 -2529.85 
252 1 0.0696174 -0.137754 1.06686 0.0551181 0 0 0 58.5023 298.546 -335.087 
237 1 -0.109433 -0.102942 1.0256 0.0551181 0 0 0 1183.85 -150.327 2573.31 
253 1 0.225245 -0.0976838 1.03866 0.0551181 0 0 0 8133.94 -7661 -4719.18 
255 1 -0.148808 -0.00437823 1.0493 0.0551181 0 0 0 875.717 -649.979 3422.44 
257 1 0.0470779 -0.0303074 1.0618 0.0551181 0 0 0 84.1368 837.544 -320.244 
242 1 0.245565 0.00922845 1.03763 0.0551181 0 0 0 3946.86 1931.65 3675.05 
240 1 -0.242209 0.0440439 1.02154 0.0551181 0 0 0 -10898 1227.06 -6521.84 
244 1 -0.119496 0.099596 1.03489 0.0551181 0 0 0 -698.867 -1940.43 -302.659 
261 1 0.0100285 0.0727603 1.06078 0.0551181 0 0 0 -1962.18 -906.525 1274.74 
259 1 0.119783 0.066578 1.05776 0.0551181 0 0 0 4191.1 -2855.91 -1130.02 
246 1 -0.0350853 0.158123 1.00453 0.0551181 0 0 0 -1183.81 1539.36 -2340.63 
262 1 0.218044 0.113643 1.04877 0.0551181 0 0 0 10016.7 66.7892 -315.823 
265 1 0.147352 0.196211 1.05145 0.0551181 0 0 0 2899.64 5504.41 535.493 
267 1 -0.0509788 -0.23985 1.1118 0.0551181 0 0 0 -140.701 -8703.85 760.796 
268 1 0.0910065 -0.227758 1.13178 0.0551181 0 0 0 1477.02 -4019.7 1055.34 
250 1 -0.192056 -0.144088 1.08482 0.0551181 0 0 0 -3627.75 -2954.68 -1120.76 
251 1 0.178111 -0.168998 1.1052 0.0551181 0 0 0 4282.99 -3533.73 1928.85 
254 1 -0.242005 -0.0477469 1.08164 0.0551181 0 0 0 -15278.9 -2488.83 -2455.35 
256 1 -0.0475382 -0.0597708 1.10529 0.0551181 0 0 0 -10.9803 -681.262 1616.09 
258 1 0.148513 -0.0286829 1.10191 0.0551181 0 0 0 -672.223 2304.86 2075.23 
274 1 -0.135477 0.0616297 1.13493 0.0551181 0 0 0 -2760.99 1573.74 254.082 
260 1 -0.211492 0.126585 1.08393 0.0551181 0 0 0 -13955.2 8007.89 2393.25 
280 1 -0.0570807 0.138284 1.11765 0.0551181 0 0 0 -385.523 -499.15 439.28 
264 1 0.0474594 0.17139 1.08779 0.0551181 0 0 0 7.40801 -1815.04 -428.572 
263 1 -0.135631 0.204393 1.07825 0.0551181 0 0 0 -434.486 4907.51 -4423.68 
266 1 -0.0336305 0.243776 1.07157 0.0551181 0 0 0 647.132 8758.93 792.146 
284 1 0.00879612 -0.245286 1.20173 0.0551181 0 0 0 -2055.37 -4026.37 995.625 
269 1 -0.139312 -0.203992 1.16093 0.0551181 0 0 0 -9474.11 -15704 -3286.57 
286 1 -0.210175 -0.128782 1.19011 0.0551181 0 0 0 -15281 -8315.95 2842.34 
270 1 -0.00184785 -0.149231 1.14962 0.0551181 0 0 0 906.949 -85.1703 -1465.88 
271 1 0.102996 -0.122655 1.17054 0.0551181 0 0 0 789.784 -944.377 -1004.5 
273 1 -0.14764 -0.0522106 1.14627 0.0551181 0 0 0 5996.99 -4130.84 -1421.15 
290 1 0.023479 -0.0498447 1.18913 0.0551181 0 0 0 581.46 533.515 1591.05 
272 1 0.232345 -0.0816516 1.14414 0.0551181 0 0 0 14689.6 -395.351 2145.93 
289 1 -0.244886 -0.0262366 1.1867 0.0551181 0 0 0 -14346.9 -523.99 1147.94 
276 1 0.243288 0.0279694 1.14607 0.0551181 0 0 0 161.113 341.887 273.953 
294 1 -0.232509 0.0809342 1.18049 0.0551181 0 0 0 -10390 3550.09 705.456 
275 1 -0.0318602 0.0398863 1.16002 0.0551181 0 0 0 -240.928 -844.665 -527.381 
277 1 0.0685566 0.0821579 1.15182 0.0551181 0 0 0 -4262.87 4080.16 -157.691 
278 1 0.20719 0.131681 1.15463 0.0551181 0 0 0 310.121 2544.63 -1476.55 
279 1 -0.174028 0.173058 1.17531 0.0551181 0 0 0 -7236.12 3399.01 -764.718 
281 1 -0.0822214 0.231735 1.16941 0.0551181 0 0 0 -3939.04 5337.41 1155.85 
283 1 0.128191 0.207793 1.15819 0.0551181 0 0 0 777.419 1401.99 652.591 
282 1 0.0255339 0.245375 1.16383 0.0551181 0 0 0 5261.63 19549.8 -1409.25 
285 1 0.127595 -0.210661 1.23092 0.0551181 0 0 0 5687.43 -4135.79 -100.799 
287 1 -0.0891365 -0.12312 1.21124 0.0551181 0 0 0 101.585 1387.18 -1734.33 
302 1 0.00661174 -0.148073 1.25918 0.0551181 0 0 0 -62.0466 -1801.36 473.003 
288 1 0.205455 -0.133574 1.23434 0.0551181 0 0 0 -1176.41 -6792.38 -492.914 
305 1 -0.0549707 -0.0358581 1.2649 0.0551181 0 0 0 920.744 -2722.94 2584.03 
293 1 -0.146356 0.0140583 1.23224 0.0551181 0 0 0 -1714.2 2552.19 -1364.75 
291 1 0.138385 -0.0267737 1.21052 0.0551181 0 0 0 -1103.82 -1374.14 678.533 
292 1 0.243996 -0.0308382 1.23916 0.0551181 0 0 0 7225.97 1568.27 1023.46 
307 1 0.00200106 0.0551386 1.26343 0.0551181 0 0 0 641.449 2798.79 -1690.09 
296 1 0.125578 0.0765774 1.24203 0.0551181 0 0 0 4478.31 -4102.99 1303.35 
297 1 0.233704 0.0774682 1.24489 0.0551181 0 0 0 12076.6 6503.29 -2040.06 
308 1 -0.206247 0.133721 1.2722 0.0551181 0 0 0 -6810.24 5806.34 -2818.1 
295 1 -0.0974576 0.112021 1.22417 0.0551181 0 0 0 1519.93 -170.585 -1649.21 
298 1 0.00861199 0.150709 1.21333 0.0551181 0 0 0 -1652.92 388.067 280.558 
311 1 -0.127869 0.209603 1.26695 0.0551181 0 0 0 -1924.71 3360.31 -2047.55 
313 1 0.0836519 0.231147 1.25565 0.0551181 0 0 0 582.711 3411.07 -1613.67 
310 1 0.175503 0.172421 1.25056 0.0551181 0 0 0 9257.29 7557.79 -1059.6 
312 1 -0.0246371 0.243982 1.26122 0.0551181 0 0 0 1156.36 4862.09 1821.55 
301 1 -0.166866 -0.179575 1.27603 0.0551181 0 0 0 -528.142 -2443.12 -392.464 
299 1 -0.0712079 -0.23431 1.27671 0.0551181 0 0 0 -47.9032 -40.624 147.079 
300 1 0.0501921 -0.240171 1.30105 0.0551181 0 0 0 3237.52 -2936.08 665.856 
316 1 0.167937 -0.179323 1.32572 0.0551181 0 0 0 7383.34 -5963.13 3697.03 
318 1 -0.081708 -0.126303 1.32075 0.0551181 0 0 0 321.358 1735.37 -1397.52 
303 1 -0.233302 -0.0777412 1.28194 0.0551181 0 0 0 -10426.1 -355.326 649.885 
322 1 -0.144229 -0.0363535 1.32868 0.0551181 0 0 0 -902.377 536.49 -587.857 
319 1 0.0171233 -0.0714215 1.33961 0.0551181 0 0 0 -538.282 -719.064 623.953 
304 1 0.104154 -0.1031 1.28093 0.0551181 0 0 0 275.243 1707.47 -608.762 
320 1 0.229119 -0.0883084 1.33044 0.0551181 0 0 0 4622.17 3037.26 -167.617 
306 1 -0.243995 0.0313594 1.27758 0.0551181 0 0 0 -9054.1 4224.27 5461.15 
324 1 0.0842588 0.0140348 1.3204 0.0551181 0 0 0 -4378.21 -5558.88 90.0614 
325 1 0.244301 0.0200065 1.33627 0.0551181 0 0 0 2820.2 -99.0096 1155.53 
327 1 -0.131599 0.0726877 1.32329 0.0551181 0 0 0 2912.16 -1111.16 1600.55 
330 1 -0.0450846 0.139158 1.31533 0.0551181 0 0 0 -2195.04 1512.84 1737.46 
309 1 0.0632919 0.13486 1.30785 0.0551181 0 0 0 -981.561 509.861 -4148.39 
328 1 0.212111 0.124602 1.34167 0.0551181 0 0 0 7521.15 3757.87 -4555.35 
315 1 -0.0249215 -0.245036 1.37829 0.0551181 0 0 0 -1926.05 -12113.1 -6086.75 
314 1 -0.128417 -0.209671 1.3735 0.0551181 0 0 0 -2913.53 -6114.29 3715.75 
334 1 0.0998127 -0.225469 1.3963 0.0551181 0 0 0 10042 -16676.1 -1388.42 
317 1 -0.20682 -0.132343 1.37151 0.0551181 0 0 0 -4039.81 -7263.73 -4649.15 
339 1 0.141088 -0.0413546 1.39304 0.0551181 0 0 0 3990.44 1488.48 2441.6 
321 1 -0.244091 -0.0198998 1.37372 0.0551181 0 0 0 -2040.09 -3373.52 -2881.57 
323 1 -0.0515714 0.0103198 1.36466 0.0551181 0 0 0 1297.12 -517.165 -1333.84 
326 1 -0.229479 0.0886389 1.36902 0.0551181 0 0 0 -8453.92 1667.02 657.186 
344 1 0.122447 0.0878286 1.3915 0.0551181 0 0 0 -18.4974 148.577 -3619.01 
346 1 0.0170424 0.150152 1.40466 0.0551181 0 0 0 2869.32 -825.267 2121.67 
329 1 -0.16783 0.178599 1.36398 0.0551181 0 0 0 -1719.96 3178.51 -1025.16 
332 1 -0.0742496 0.234634 1.35848 0.0551181 0 0 0 -177.451 10831.8 4060.16 
331 1 0.136737 0.204154 1.34738 0.0551181 0 0 0 6756.02 9165.23 4969.36 
333 1 0.0348915 0.243788 1.35293 0.0551181 0 0 0 360.658 11060.6 -2943.34 
351 1 0.0278052 -0.244075 1.47408 0.0551181 0 0 0 1347.59 -10349.2 3042.46 
352 1 -0.173402 -0.173385 1.46656 0.0551181 0 0 0 -3483.06 235.27 1827.46 
350 1 -0.0809812 -0.231488 1.4702 0.0551181 0 0 0 2012.97 -4074.11 -247.559 
335 1 -0.0318796 -0.143803 1.41648 0.0551181 0 0 0 -1675.39 -2770.57 3908.16 
338 1 0.07502 -0.123213 1.41701 0.0551181 0 0 0 -5016.21 1847.96 -4231.99 
336 1 0.201265 -0.140242 1.42069 0.0551181 0 0 0 2086.52 -4642.6 -435.944 
355 1 -0.232633 -0.0795945 1.4638 0.0551181 0 0 0 -2223.54 1594.16 962.743 
337 1 -0.123399 -0.0850583 1.42334 0.0551181 0 0 0 179.119 181.159 426.219 
360 1 -0.004699 -0.0511265 1.46682 0.0551181 0 0 0 -312.862 822.237 -2189.98 
340 1 0.243438 -0.0389824 1.42755 0.0551181 0 0 0 14236.8 -1328.49 -3146.32 
341 1 -0.144863 0.0229226 1.4207 0.0551181 0 0 0 -1838.39 -102.032 -264.309 
363 1 0.146108 0.0266083 1.47951 0.0551181 0 0 0 -89.7777 73.484 1299.61 
361 1 -0.243205 0.0390508 1.46485 0.0551181 0 0 0 -8523.2 3091.77 3294.17 
342 1 0.0301528 0.0442921 1.42849 0.0551181 0 0 0 -359.063 855.352 3092.02 
345 1 0.235455 0.070149 1.43337 0.0551181 0 0 0 5599.56 1397.53 -2491.26 
365 1 -0.201166 0.140448 1.46068 0.0551181 0 0 0 -2117.74 1871.96 -1568.53 
343 1 -0.088339 0.116982 1.41402 0.0551181 0 0 0 -749.668 1388.57 -273.658 
347 1 0.18214 0.165747 1.43864 0.0551181 0 0 0 7649.82 5237.07 7385.48 
367 1 -0.120496 0.214202 1.4557 0.0551181 0 0 0 -1536.97 2953.61 157.294 
349 1 0.0919721 0.227477 1.44484 0.0551181 0 0 0 1156.64 2543.81 -3185.9 
348 1 -0.0159257 0.245012 1.45025 0.0551181 0 0 0 845.329 3157.5 -441.922 
354 1 0.141191 -0.194098 1.49278 0.0551181 0 0 0 2297.68 0.874525 1153.73 
356 1 -0.0781748 -0.1237 1.51486 0.0551181 0 0 0 231.677 -1192.96 150.603 
353 1 0.029776 -0.143242 1.51465 0.0551181 0 0 0 2483.81 1598.59 206.225 
357 1 0.117513 -0.0763962 1.50487 0.0551181 0 0 0 1544.68 -1466.87 -14.9692 
358 1 0.224949 -0.0977609 1.51617 0.0551181 0 0 0 5274.67 1846.2 2428.5 
359 1 -0.142144 -0.0334739 1.51731 0.0551181 0 0 0 184.965 1221.6 -303.599 
375 1 0.0509623 0.0171314 1.53308 0.0551181 0 0 0 -34.7732 480.311 -120.689 
376 1 0.245178 0.0108237 1.52458 0.0551181 0 0 0 3171.48 2227.9 784.688 
362 1 -0.0635783 0.0423303 1.49114 0.0551181 0 0 0 1416.78 -630.57 -72.5337 
366 1 -0.028882 0.14554 1.50156 0.0551181 0 0 0 -2801.41 -1216.57 -501.909 
364 1 0.0826563 0.119988 1.48875 0.0551181 0 0 0 635.349 620.29 75.5569 
379 1 0.216042 0.116386 1.53055 0.0551181 0 0 0 4903.27 1844.87 929.535 
383 1 -0.0657329 0.236664 1.54779 0.0551181 0 0 0 -3146.25 9836.32 3050.03 
382 1 0.144043 0.198392 1.53621 0.0551181 0 0 0 1224.13 2172.79 -65.0619 
384 1 0.0434634 0.242244 1.54173 0.0551181 0 0 0 1910.27 12218.8 -1519.48 
369 1 -0.0289305 -0.243963 1.56646 0.0551181 0 0 0 -889.282 -5340.55 -675.891 
368 1 -0.132231 -0.206978 1.56228 0.0551181 0 0 0 -4591.29 -1098.02 -1042.69 
370 1 0.0803266 -0.232354 1.57326 0.0551181 0 0 0 -1630.74 -3742.18 -3669.6 
372 1 -0.210114 -0.127105 1.55849 0.0551181 0 0 0 -4751.94 -5569.62 116.85 
387 1 -0.0252911 -0.143169 1.60914 0.0551181 0 0 0 -2034.78 437.653 -2083.58 
390 1 0.0825222 -0.126453 1.60884 0.0551181 0 0 0 -94.9595 -1800.93 2853.23 
371 1 0.183341 -0.163873 1.59032 0.0551181 0 0 0 2502.28 -9761.42 -6083.01 
389 1 -0.121498 -0.0892219 1.60958 0.0551181 0 0 0 1457.96 2228.33 1577.35 
392 1 0.240213 -0.0523566 1.61241 0.0551181 0 0 0 7850.16 -1139.76 64.5133 
373 1 -0.244232 -0.0199669 1.55558 0.0551181 0 0 0 -2891.62 -3786.75 -1750.94 
374 1 -0.0401996 -0.0319185 1.56799 0.0551181 0 0 0 198.749 -1497.04 -1323.01 
391 1 0.133691 -0.0300344 1.60144 0.0551181 0 0 0 -2164.07 1974.7 -1100.88 
377 1 -0.225769 0.0957316 1.55644 0.0551181 0 0 0 -3246.04 2787.29 1083.68 
394 1 -0.143976 0.0372463 1.60057 0.0551181 0 0 0 1238.19 -2092.47 616.765 
378 1 0.127121 0.0787868 1.58255 0.0551181 0 0 0 -186.099 355.811 -216.54 
397 1 -0.0810637 0.125892 1.59502 0.0551181 0 0 0 -173.638 -834.403 -1626.3 
381 1 0.0385756 0.143854 1.58645 0.0551181 0 0 0 452.785 -1307.76 -1294.75 
380 1 -0.162157 0.185169 1.55251 0.0551181 0 0 0 -5194.91 6325.19 -1582.1 